============================== echo of input deck ==============================
start

permanent_dir /gpfs/scratch/bsundahl
scratch_dir /gpfs/scratch/bsundahl

title "Chlorofluoromethane"

memory stack 400 mb heap 800 mb global 4000 mb

echo

geometry units atomic noautosym
   C            -1.08699403          -1.06402004           0.00093094
   H            -1.30471223          -2.17800655          -1.68390859
   F            -2.78765408           0.79897764           0.00054332
   Cl            2.00182581           0.20625364          -0.00242137
   H            -1.30245939          -2.17512424           1.68791102
end

basis spherical
 * library aug-cc-pvqz
end

driver
 maxiter 200
end

dft
 xc hfexch
 noio                         # turns off IO in charge fitting
 grid nodisk                  # turns off IO in grid
 direct                       # forces incore integrals
 maxiter 200
end

tddft
 nroots 10
end

task tddft energy
================================================================================

 Output coordinates in a.u. (scale by  1.000000000 to convert to a.u.)

  No.       Tag          Charge          X              Y              Z
 ---- ---------------- ---------- -------------- -------------- --------------
    1 C                    6.0000    -1.08149451    -1.06283944     0.00171580
    2 H                    1.0000    -1.29921271    -2.17682595    -1.68312373
    3 F                    9.0000    -2.78215456     0.80015824     0.00132818
    4 Cl                  17.0000     2.00732533     0.20743424    -0.00163651
    5 H                    1.0000    -1.29695987    -2.17394364     1.68869588

         Total DFT energy =     -598.049849688206

                       DFT Final Molecular Orbital Analysis
                       ------------------------------------

 Vector    7  Occ=2.000000D+00  E=-8.033340D+00

 Vector    8  Occ=2.000000D+00  E=-1.645952D+00

 Vector    9  Occ=2.000000D+00  E=-1.146375D+00

 Vector   10  Occ=2.000000D+00  E=-9.364520D-01

 Vector   11  Occ=2.000000D+00  E=-7.584479D-01

 Vector   12  Occ=2.000000D+00  E=-7.433496D-01

 Vector   13  Occ=2.000000D+00  E=-7.059282D-01

 Vector   14  Occ=2.000000D+00  E=-5.878633D-01

 Vector   15  Occ=2.000000D+00  E=-5.419280D-01

 Vector   16  Occ=2.000000D+00  E=-4.696471D-01

 Vector   17  Occ=2.000000D+00  E=-4.534143D-01

 Vector   18  Occ=0.000000D+00  E= 2.568959D-02

 Vector   19  Occ=0.000000D+00  E= 3.866299D-02

 Vector   20  Occ=0.000000D+00  E= 5.477292D-02

 Vector   21  Occ=0.000000D+00  E= 6.724354D-02

 Vector   22  Occ=0.000000D+00  E= 9.464933D-02

 Vector   23  Occ=0.000000D+00  E= 1.103308D-01

 Vector   24  Occ=0.000000D+00  E= 1.116442D-01

 Vector   25  Occ=0.000000D+00  E= 1.147660D-01

 Vector   26  Occ=0.000000D+00  E= 1.189376D-01

 Vector   27  Occ=0.000000D+00  E= 1.546424D-01

 Vector   28  Occ=0.000000D+00  E= 1.733921D-01

 Vector   29  Occ=0.000000D+00  E= 1.761882D-01

 Vector   30  Occ=0.000000D+00  E= 2.055124D-01

 Vector   31  Occ=0.000000D+00  E= 2.169606D-01

 Vector   32  Occ=0.000000D+00  E= 2.241678D-01

 Vector   33  Occ=0.000000D+00  E= 2.270693D-01

 Vector   34  Occ=0.000000D+00  E= 2.430579D-01

 Vector   35  Occ=0.000000D+00  E= 2.536165D-01

 Vector   36  Occ=0.000000D+00  E= 2.666103D-01

 Vector   37  Occ=0.000000D+00  E= 2.751487D-01

 Vector   38  Occ=0.000000D+00  E= 2.758543D-01

 Vector   39  Occ=0.000000D+00  E= 2.849064D-01

 Vector   40  Occ=0.000000D+00  E= 3.063528D-01

 Vector   41  Occ=0.000000D+00  E= 3.237508D-01

 Vector   42  Occ=0.000000D+00  E= 3.408975D-01

 Vector   43  Occ=0.000000D+00  E= 3.420093D-01

 Vector   44  Occ=0.000000D+00  E= 3.608960D-01

 Vector   45  Occ=0.000000D+00  E= 3.623826D-01

 Vector   46  Occ=0.000000D+00  E= 3.754520D-01

 Vector   47  Occ=0.000000D+00  E= 3.795214D-01

 Vector   48  Occ=0.000000D+00  E= 3.946165D-01

 Vector   49  Occ=0.000000D+00  E= 4.199861D-01

 Vector   50  Occ=0.000000D+00  E= 4.293237D-01

 Vector   51  Occ=0.000000D+00  E= 4.349654D-01

 Vector   52  Occ=0.000000D+00  E= 4.904651D-01

 Vector   53  Occ=0.000000D+00  E= 5.187015D-01

     Multipole analysis of the density
     ---------------------------------

     L   x y z        total         alpha         beta         nuclear
     -   - - -        -----         -----         ----         -------
     0   0 0 0     -0.000000    -17.000000    -17.000000     34.000000

     1   1 0 0     -0.201958     -0.100979     -0.100979      0.000000
     1   0 1 0     -0.758846     -0.379423     -0.379423      0.000000
     1   0 0 1      0.000802      0.000401      0.000401      0.000000

     2   2 0 0    -19.365571    -83.957951    -83.957951    148.550331
     2   1 1 0      1.650763      1.031617      1.031617     -0.412471
     2   1 0 1     -0.000037      0.051817      0.051817     -0.103671
     2   0 2 0    -17.140306    -19.938223    -19.938223     22.736139
     2   0 1 1     -0.001362      0.006524      0.006524     -0.014410

  Root   1 singlet a              0.304404012 a.u.                8.2833 eV
     Dipole Oscillator Strength                         0.00081
  Root   2 singlet a              0.320211201 a.u.                8.7134 eV
     Dipole Oscillator Strength                         0.00413
  Root   3 singlet a              0.332246419 a.u.                9.0409 eV
     Dipole Oscillator Strength                         0.03233
  Root   4 singlet a              0.349699111 a.u.                9.5158 eV
     Dipole Oscillator Strength                         0.07419
  Root   5 singlet a              0.365537744 a.u.                9.9468 eV
     Dipole Oscillator Strength                         0.05596
  Root   6 singlet a              0.372088853 a.u.               10.1251 eV
     Dipole Oscillator Strength                         0.00097
  Root   7 singlet a              0.378099558 a.u.               10.2886 eV
     Dipole Oscillator Strength                         0.05408
  Root   8 singlet a              0.384425307 a.u.               10.4607 eV
     Dipole Oscillator Strength                         0.00161
  Root   9 singlet a              0.389610776 a.u.               10.6019 eV
     Dipole Oscillator Strength                         0.03332
  Root  10 singlet a              0.401525704 a.u.               10.9261 eV
     Dipole Oscillator Strength                         0.00893
  Root   1 triplet a              0.260213979 a.u.                7.0808 eV
  Root   2 triplet a              0.270894779 a.u.                7.3714 eV
  Root   3 triplet a              0.306537974 a.u.                8.3413 eV
  Root   4 triplet a              0.320842603 a.u.                8.7306 eV
  Root   5 triplet a              0.338043804 a.u.                9.1986 eV
  Root   6 triplet a              0.353325536 a.u.                9.6145 eV
  Root   7 triplet a              0.361788133 a.u.                9.8448 eV
  Root   8 triplet a              0.364482269 a.u.                9.9181 eV
  Root   9 triplet a              0.375070560 a.u.               10.2062 eV
  Root  10 triplet a              0.381359039 a.u.               10.3773 eV
 Total times  cpu:     1013.5s     wall:     1102.5s
