============================== echo of input deck ==============================
start

permanent_dir /gpfs/scratch/bsundahl
scratch_dir /gpfs/scratch/bsundahl

title "Formic Acid"

memory stack 400 mb heap 800 mb global 4000 mb

echo

geometry units atomic noautosym
  C             0.05471579           0.77999993           0.21060877
  O             0.13978043          -0.26019340          -2.05397762
  O             0.02175076          -0.34083649           2.12808539
  H             0.17552398          -2.03837678          -1.88909866
  H             0.01785515           2.82379219           0.06044559
end

basis spherical
 * library aug-cc-pvqz
end

driver
 maxiter 200
end

dft
 xc hfexch
 noio                         # turns off IO in charge fitting
 grid nodisk                  # turns off IO in grid
 direct                       # forces incore integrals
 maxiter 200
end

tddft
 nroots 10
end

task tddft energy
================================================================================

 Output coordinates in a.u. (scale by  1.000000000 to convert to a.u.)

  No.       Tag          Charge          X              Y              Z
 ---- ---------------- ---------- -------------- -------------- --------------
    1 C                    6.0000    -0.02086435     0.75261760     0.20944787
    2 O                    8.0000     0.06420029    -0.28757573    -2.05513852
    3 O                    8.0000    -0.05382938    -0.36821882     2.12692449
    4 H                    1.0000     0.09994384    -2.06575911    -1.89025956
    5 H                    1.0000    -0.05772499     2.79640986     0.05928469

         Total DFT energy =     -188.859462067135

                       DFT Final Molecular Orbital Analysis
                       ------------------------------------

 Vector    2  Occ=2.000000D+00  E=-2.055943D+01

 Vector    3  Occ=2.000000D+00  E=-1.138598D+01

 Vector    4  Occ=2.000000D+00  E=-1.493344D+00

 Vector    5  Occ=2.000000D+00  E=-1.389665D+00

 Vector    6  Occ=2.000000D+00  E=-9.068928D-01

 Vector    7  Occ=2.000000D+00  E=-7.377821D-01

 Vector    8  Occ=2.000000D+00  E=-7.172025D-01

 Vector    9  Occ=2.000000D+00  E=-6.483568D-01

 Vector   10  Occ=2.000000D+00  E=-6.065636D-01

 Vector   11  Occ=2.000000D+00  E=-5.013735D-01

 Vector   12  Occ=2.000000D+00  E=-4.740045D-01

 Vector   13  Occ=0.000000D+00  E= 2.611447D-02

 Vector   14  Occ=0.000000D+00  E= 3.455313D-02

 Vector   15  Occ=0.000000D+00  E= 6.437185D-02

 Vector   16  Occ=0.000000D+00  E= 6.982297D-02

 Vector   17  Occ=0.000000D+00  E= 9.620563D-02

 Vector   18  Occ=0.000000D+00  E= 1.180094D-01

 Vector   19  Occ=0.000000D+00  E= 1.302458D-01

 Vector   20  Occ=0.000000D+00  E= 1.340211D-01

 Vector   21  Occ=0.000000D+00  E= 1.395258D-01

 Vector   22  Occ=0.000000D+00  E= 1.439563D-01

 Vector   23  Occ=0.000000D+00  E= 1.524611D-01

 Vector   24  Occ=0.000000D+00  E= 1.915270D-01

 Vector   25  Occ=0.000000D+00  E= 1.931795D-01

 Vector   26  Occ=0.000000D+00  E= 2.023799D-01

 Vector   27  Occ=0.000000D+00  E= 2.301241D-01

 Vector   28  Occ=0.000000D+00  E= 2.359172D-01

 Vector   29  Occ=0.000000D+00  E= 2.390275D-01

 Vector   30  Occ=0.000000D+00  E= 2.576516D-01

 Vector   31  Occ=0.000000D+00  E= 2.708340D-01

 Vector   32  Occ=0.000000D+00  E= 2.846122D-01

 Vector   33  Occ=0.000000D+00  E= 2.999889D-01

 Vector   34  Occ=0.000000D+00  E= 3.028078D-01

 Vector   35  Occ=0.000000D+00  E= 3.320614D-01

 Vector   36  Occ=0.000000D+00  E= 3.405457D-01

 Vector   37  Occ=0.000000D+00  E= 3.602133D-01

 Vector   38  Occ=0.000000D+00  E= 3.611799D-01

 Vector   39  Occ=0.000000D+00  E= 3.956148D-01

 Vector   40  Occ=0.000000D+00  E= 4.118309D-01

 Vector   41  Occ=0.000000D+00  E= 4.310064D-01

 Vector   42  Occ=0.000000D+00  E= 4.706231D-01

 Vector   43  Occ=0.000000D+00  E= 4.913801D-01

 Vector   44  Occ=0.000000D+00  E= 5.263819D-01

     Multipole analysis of the density
     ---------------------------------

     L   x y z        total         alpha         beta         nuclear
     -   - - -        -----         -----         ----         -------
     0   0 0 0     -0.000000    -12.000000    -12.000000     24.000000

     1   1 0 0      0.018936      0.009468      0.009468      0.000000
     1   0 1 0      0.113972      0.056986      0.056986      0.000000
     1   0 0 1     -0.670732     -0.335366     -0.335366      0.000000

     2   2 0 0    -12.528725     -6.300406     -6.300406      0.072087
     2   1 1 0     -0.112697      0.169267      0.169267     -0.451232
     2   1 0 1      0.063898      1.126956      1.126956     -2.190014
     2   0 2 0     -9.766459    -13.499303    -13.499303     17.232148
     2   0 1 1      1.827442     -0.825821     -0.825821      3.479085

  Root   1 singlet a              0.247096896 a.u.                6.7239 eV
     Dipole Oscillator Strength                         0.00164
  Root   2 singlet a              0.344239771 a.u.                9.3672 eV
     Dipole Oscillator Strength                         0.04225
  Root   3 singlet a              0.357492696 a.u.                9.7279 eV
     Dipole Oscillator Strength                         0.13592
  Root   4 singlet a              0.359459759 a.u.                9.7814 eV
     Dipole Oscillator Strength                         0.00057
  Root   5 singlet a              0.372451612 a.u.               10.1349 eV
     Dipole Oscillator Strength                         0.08350
  Root   6 singlet a              0.391055071 a.u.               10.6412 eV
     Dipole Oscillator Strength                         0.00549
  Root   7 singlet a              0.395932247 a.u.               10.7739 eV
     Dipole Oscillator Strength                         0.08350
  Root   8 singlet a              0.397425187 a.u.               10.8145 eV
     Dipole Oscillator Strength                         0.01188
  Root   9 singlet a              0.400001203 a.u.               10.8846 eV
     Dipole Oscillator Strength                         0.00018
  Root  10 singlet a              0.417409938 a.u.               11.3583 eV
     Dipole Oscillator Strength                         0.02824
  Root   1 triplet a              0.184618807 a.u.                5.0237 eV
  Root   2 triplet a              0.215425145 a.u.                5.8620 eV
  Root   3 triplet a              0.336804448 a.u.                9.1649 eV
  Root   4 triplet a              0.345652484 a.u.                9.4057 eV
  Root   5 triplet a              0.354507343 a.u.                9.6466 eV
  Root   6 triplet a              0.357352016 a.u.                9.7240 eV
  Root   7 triplet a              0.377829343 a.u.               10.2813 eV
  Root   8 triplet a              0.390071354 a.u.               10.6144 eV
  Root   9 triplet a              0.390315079 a.u.               10.6210 eV
  Root  10 triplet a              0.392626002 a.u.               10.6839 eV
 Total times  cpu:      491.7s     wall:      522.1s
