============================== echo of input deck ==============================
start

permanent_dir /gpfs/scratch/bsundahl
scratch_dir /gpfs/scratch/bsundahl

title "Methane"

memory stack 400 mb heap 800 mb global 4000 mb

echo

geometry units atomic noautosym
  Li 0.0 0.0 0.0
end

charge 1

basis spherical
 * library aug-cc-pvqz
end

driver
 maxiter 200
end

dft
 xc hfexch
 noio                         # turns off IO in charge fitting
 grid nodisk                  # turns off IO in grid
 direct                       # forces incore integrals
 maxiter 200
end

tddft
 nroots 10
end

task tddft energy
================================================================================

 Output coordinates in a.u. (scale by  1.000000000 to convert to a.u.)

  No.       Tag          Charge          X              Y              Z
 ---- ---------------- ---------- -------------- -------------- --------------
    1 Li                   3.0000     0.00000000     0.00000000     0.00000000

         Total DFT energy =       -7.236384483920

                       DFT Final Molecular Orbital Analysis
                       ------------------------------------

 Vector    1  Occ=2.000000D+00  E=-2.792357D+00

 Vector    2  Occ=0.000000D+00  E=-1.963036D-01

 Vector    3  Occ=0.000000D+00  E=-1.286265D-01

 Vector    4  Occ=0.000000D+00  E=-1.286265D-01

 Vector    5  Occ=0.000000D+00  E=-1.286265D-01

 Vector    6  Occ=0.000000D+00  E=-7.356558D-02

 Vector    7  Occ=0.000000D+00  E=-5.668839D-02

 Vector    8  Occ=0.000000D+00  E=-5.668839D-02

 Vector    9  Occ=0.000000D+00  E=-5.668839D-02

 Vector   10  Occ=0.000000D+00  E=-4.668508D-02

 Vector   11  Occ=0.000000D+00  E=-4.668508D-02

 Vector   12  Occ=0.000000D+00  E=-4.668508D-02

 Vector   13  Occ=0.000000D+00  E=-4.668508D-02

 Vector   14  Occ=0.000000D+00  E=-4.668508D-02

 Vector   15  Occ=0.000000D+00  E=-2.179707D-02

 Vector   16  Occ=0.000000D+00  E=-1.420187D-02

 Vector   17  Occ=0.000000D+00  E=-1.420187D-02

 Vector   18  Occ=0.000000D+00  E=-1.420187D-02

 Vector   19  Occ=0.000000D+00  E= 6.794651D-02

 Vector   20  Occ=0.000000D+00  E= 6.794651D-02

 Vector   21  Occ=0.000000D+00  E= 6.794651D-02

 Vector   22  Occ=0.000000D+00  E= 6.794651D-02

 Vector   23  Occ=0.000000D+00  E= 6.794651D-02

 Vector   24  Occ=0.000000D+00  E= 6.794651D-02

 Vector   25  Occ=0.000000D+00  E= 6.794651D-02

 Vector   26  Occ=0.000000D+00  E= 7.650391D-02

 Vector   27  Occ=0.000000D+00  E= 7.650391D-02

 Vector   28  Occ=0.000000D+00  E= 7.650391D-02

 Vector   29  Occ=0.000000D+00  E= 7.650391D-02

 Vector   30  Occ=0.000000D+00  E= 7.650391D-02

 Vector   31  Occ=0.000000D+00  E= 1.344772D-01

 Vector   32  Occ=0.000000D+00  E= 1.344772D-01

 Vector   33  Occ=0.000000D+00  E= 1.344772D-01

 Vector   34  Occ=0.000000D+00  E= 1.680800D-01

 Vector   35  Occ=0.000000D+00  E= 3.451675D-01

 Vector   36  Occ=0.000000D+00  E= 3.451675D-01

 Vector   37  Occ=0.000000D+00  E= 3.451675D-01

 Vector   38  Occ=0.000000D+00  E= 3.451675D-01

 Vector   39  Occ=0.000000D+00  E= 3.451675D-01

 Vector   40  Occ=0.000000D+00  E= 3.451675D-01

 Vector   41  Occ=0.000000D+00  E= 3.451675D-01

 Vector   42  Occ=0.000000D+00  E= 3.451675D-01

 Vector   43  Occ=0.000000D+00  E= 3.451675D-01

 Vector   44  Occ=0.000000D+00  E= 4.113419D-01

 Vector   45  Occ=0.000000D+00  E= 4.113419D-01

 Vector   46  Occ=0.000000D+00  E= 4.113419D-01

 Vector   47  Occ=0.000000D+00  E= 4.113419D-01

 Vector   48  Occ=0.000000D+00  E= 4.113419D-01

 Vector   49  Occ=0.000000D+00  E= 4.113419D-01

 Vector   50  Occ=0.000000D+00  E= 4.113419D-01

 Vector   51  Occ=0.000000D+00  E= 4.161803D-01

 Vector   52  Occ=0.000000D+00  E= 4.161803D-01

 Vector   53  Occ=0.000000D+00  E= 4.161803D-01

 Vector   54  Occ=0.000000D+00  E= 4.161803D-01

 Vector   55  Occ=0.000000D+00  E= 4.161803D-01

 Vector   56  Occ=0.000000D+00  E= 8.413527D-01

  Root   1 singlet a              2.258992796 a.u.               61.4703 eV
     Dipole Oscillator Strength                         0.00000
  Root   2 singlet a              2.306479294 a.u.               62.7625 eV
     Dipole Oscillator Strength                         0.14860
  Root   3 singlet a              2.306479294 a.u.               62.7625 eV
     Dipole Oscillator Strength                         0.14860
  Root   4 singlet a              2.306479294 a.u.               62.7625 eV
     Dipole Oscillator Strength                         0.14860
  Root   5 singlet a              2.560702214 a.u.               69.6803 eV
     Dipole Oscillator Strength                         0.00000
  Root   6 singlet a              2.570419114 a.u.               69.9447 eV
     Dipole Oscillator Strength                         0.00000
  Root   7 singlet a              2.570419114 a.u.               69.9447 eV
     Dipole Oscillator Strength                         0.00000
  Root   8 singlet a              2.574579240 a.u.               70.0579 eV
     Dipole Oscillator Strength                         0.03708
  Root   9 singlet a              2.574579240 a.u.               70.0579 eV
     Dipole Oscillator Strength                         0.03708
  Root  10 singlet a              2.574579240 a.u.               70.0579 eV
     Dipole Oscillator Strength                         0.03708
  Root   1 triplet a              2.174051943 a.u.               59.1590 eV
  Root   2 triplet a              2.257472136 a.u.               61.4290 eV
  Root   3 triplet a              2.257472136 a.u.               61.4290 eV
  Root   4 triplet a              2.257472136 a.u.               61.4290 eV
  Root   5 triplet a              2.540981117 a.u.               69.1436 eV
  Root   6 triplet a              2.560295954 a.u.               69.6692 eV
  Root   7 triplet a              2.560295954 a.u.               69.6692 eV
  Root   8 triplet a              2.560295954 a.u.               69.6692 eV
  Root   9 triplet a              2.570083956 a.u.               69.9356 eV
  Root  10 triplet a              2.570083956 a.u.               69.9356 eV
 Total times  cpu:       27.2s     wall:       27.8s
