============================== echo of input deck ==============================
start

permanent_dir /gpfs/scratch/bsundahl
scratch_dir /gpfs/scratch/bsundahl

title "Methane"

memory stack 400 mb heap 800 mb global 4000 mb

echo

geometry units atomic noautosym
  C            -0.04714860           0.09934631          -0.05454144
  H            -0.12614557           1.41489066          -1.61627626
  H            -0.06377846           1.13129110           1.70900980
  H             1.66945429          -1.00317140          -0.17990597
  H            -1.66413157          -1.14786760          -0.12999600
end

basis spherical
 * library aug-cc-pvqz
end

driver
 maxiter 200
end

dft
 xc hfexch
 noio                         # turns off IO in charge fitting
 grid nodisk                  # turns off IO in grid
 direct                       # forces incore integrals
 maxiter 200
end

tddft
 nroots 10
end

task tddft energy
================================================================================

 Output coordinates in a.u. (scale by  1.000000000 to convert to a.u.)

  No.       Tag          Charge          X              Y              Z
 ---- ---------------- ---------- -------------- -------------- --------------
    1 C                    6.0000    -0.00039931     0.00022425    -0.00009973
    2 H                    1.0000    -0.07939628     1.31576860    -1.56183455
    3 H                    1.0000    -0.01702917     1.03216904     1.76345151
    4 H                    1.0000     1.71620358    -1.10229346    -0.12546426
    5 H                    1.0000    -1.61738228    -1.24698966    -0.07555429

         Total DFT energy =      -40.216345971506

                       DFT Final Molecular Orbital Analysis
                       ------------------------------------

 Vector    1  Occ=2.000000D+00  E=-1.120205D+01

 Vector    2  Occ=2.000000D+00  E=-9.458364D-01

 Vector    3  Occ=2.000000D+00  E=-5.470369D-01

 Vector    4  Occ=2.000000D+00  E=-5.469807D-01

 Vector    5  Occ=2.000000D+00  E=-5.466841D-01

 Vector    6  Occ=0.000000D+00  E= 2.745347D-02

 Vector    7  Occ=0.000000D+00  E= 4.512343D-02

 Vector    8  Occ=0.000000D+00  E= 4.512724D-02

 Vector    9  Occ=0.000000D+00  E= 4.514203D-02

 Vector   10  Occ=0.000000D+00  E= 1.063254D-01

 Vector   11  Occ=0.000000D+00  E= 1.063611D-01

 Vector   12  Occ=0.000000D+00  E= 1.063688D-01

 Vector   13  Occ=0.000000D+00  E= 1.234463D-01

 Vector   14  Occ=0.000000D+00  E= 1.851417D-01

 Vector   15  Occ=0.000000D+00  E= 1.851485D-01

 Vector   16  Occ=0.000000D+00  E= 1.851580D-01

 Vector   17  Occ=0.000000D+00  E= 2.072299D-01

 Vector   18  Occ=0.000000D+00  E= 2.072407D-01

 Vector   19  Occ=0.000000D+00  E= 2.685941D-01

 Vector   20  Occ=0.000000D+00  E= 2.715390D-01

 Vector   21  Occ=0.000000D+00  E= 2.715863D-01

 Vector   22  Occ=0.000000D+00  E= 2.715974D-01

 Vector   23  Occ=0.000000D+00  E= 2.805857D-01

 Vector   24  Occ=0.000000D+00  E= 2.806047D-01

 Vector   25  Occ=0.000000D+00  E= 2.806168D-01

 Vector   26  Occ=0.000000D+00  E= 2.922376D-01

 Vector   27  Occ=0.000000D+00  E= 2.922545D-01

 Vector   28  Occ=0.000000D+00  E= 2.922759D-01

 Vector   29  Occ=0.000000D+00  E= 3.329685D-01

 Vector   30  Occ=0.000000D+00  E= 3.924145D-01

 Vector   31  Occ=0.000000D+00  E= 3.924669D-01

 Vector   32  Occ=0.000000D+00  E= 3.932725D-01

 Vector   33  Occ=0.000000D+00  E= 3.933164D-01

 Vector   34  Occ=0.000000D+00  E= 3.933329D-01

 Vector   35  Occ=0.000000D+00  E= 5.480661D-01

     Multipole analysis of the density
     ---------------------------------

     L   x y z        total         alpha         beta         nuclear
     -   - - -        -----         -----         ----         -------
     0   0 0 0     -0.000000     -5.000000     -5.000000     10.000000

     1   1 0 0      0.000132      0.000066      0.000066      0.000000
     1   0 1 0     -0.000052     -0.000026     -0.000026      0.000000
     1   0 0 1      0.000095      0.000047      0.000047      0.000000

     2   2 0 0     -6.237280     -5.902577     -5.902577      5.567875
     2   1 1 0      0.001475     -0.000790     -0.000790      0.003054
     2   1 0 1      0.000337     -0.000258     -0.000258      0.000852
     2   0 2 0     -6.237244     -5.901949     -5.901949      5.566654
     2   0 1 1     -0.000789      0.000765      0.000765     -0.002319

  Root   1 singlet a              0.407768570 a.u.               11.0960 eV
     Dipole Oscillator Strength                         0.15130
  Root   2 singlet a              0.408049785 a.u.               11.1036 eV
     Dipole Oscillator Strength                         0.15138
  Root   3 singlet a              0.408101968 a.u.               11.1050 eV
     Dipole Oscillator Strength                         0.15143
  Root   4 singlet a              0.455846241 a.u.               12.4042 eV
     Dipole Oscillator Strength                         0.00255
  Root   5 singlet a              0.455972834 a.u.               12.4077 eV
     Dipole Oscillator Strength                         0.00248
  Root   6 singlet a              0.456025497 a.u.               12.4091 eV
     Dipole Oscillator Strength                         0.00250
  Root   7 singlet a              0.457130818 a.u.               12.4392 eV
     Dipole Oscillator Strength                         0.00001
  Root   8 singlet a              0.457199025 a.u.               12.4410 eV
     Dipole Oscillator Strength                         0.00001
  Root   9 singlet a              0.458543082 a.u.               12.4776 eV
     Dipole Oscillator Strength                         0.00000
  Root  10 singlet a              0.458574647 a.u.               12.4785 eV
     Dipole Oscillator Strength                         0.00001
  Root   1 triplet a              0.375811747 a.u.               10.2264 eV
  Root   2 triplet a              0.376078148 a.u.               10.2336 eV
  Root   3 triplet a              0.376119185 a.u.               10.2347 eV
  Root   4 triplet a              0.394309872 a.u.               10.7297 eV
  Root   5 triplet a              0.447834217 a.u.               12.1862 eV
  Root   6 triplet a              0.448000889 a.u.               12.1907 eV
  Root   7 triplet a              0.448044840 a.u.               12.1919 eV
  Root   8 triplet a              0.452446344 a.u.               12.3117 eV
  Root   9 triplet a              0.452509333 a.u.               12.3134 eV
  Root  10 triplet a              0.457440088 a.u.               12.4476 eV
 Total times  cpu:      149.5s     wall:      153.1s
