============================== echo of input deck ==============================
start

permanent_dir /gpfs/scratch/bsundahl
scratch_dir /gpfs/scratch/bsundahl

title "Nitrogen"

memory stack 400 mb heap 800 mb global 4000 mb

echo

geometry units atomic noautosym
  N             0.00000000           0.00000000           1.00660955
  N             0.00000000           0.00000000          -1.00660955
end

basis spherical
 * library aug-cc-pvqz
end

driver
 maxiter 200
end

dft
 xc hfexch
 noio                         # turns off IO in charge fitting
 grid nodisk                  # turns off IO in grid
 direct                       # forces incore integrals
 maxiter 200
end

tddft
 nroots 10
end

task tddft energy
================================================================================

 Output coordinates in a.u. (scale by  1.000000000 to convert to a.u.)

  No.       Tag          Charge          X              Y              Z
 ---- ---------------- ---------- -------------- -------------- --------------
    1 N                    7.0000     0.00000000     0.00000000     1.00660955
    2 N                    7.0000     0.00000000     0.00000000    -1.00660955

         Total DFT energy =     -108.994932909521

                       DFT Final Molecular Orbital Analysis
                       ------------------------------------

 Vector    1  Occ=2.000000D+00  E=-1.567179D+01

 Vector    2  Occ=2.000000D+00  E=-1.566747D+01

 Vector    3  Occ=2.000000D+00  E=-1.494981D+00

 Vector    4  Occ=2.000000D+00  E=-7.686044D-01

 Vector    5  Occ=2.000000D+00  E=-6.373217D-01

 Vector    6  Occ=2.000000D+00  E=-6.284697D-01

 Vector    7  Occ=2.000000D+00  E=-6.284697D-01

 Vector    8  Occ=0.000000D+00  E= 7.143190D-02

 Vector    9  Occ=0.000000D+00  E= 1.008119D-01

 Vector   10  Occ=0.000000D+00  E= 1.075832D-01

 Vector   11  Occ=0.000000D+00  E= 1.075832D-01

 Vector   12  Occ=0.000000D+00  E= 1.115180D-01

 Vector   13  Occ=0.000000D+00  E= 1.115180D-01

 Vector   14  Occ=0.000000D+00  E= 1.381385D-01

 Vector   15  Occ=0.000000D+00  E= 1.906818D-01

 Vector   16  Occ=0.000000D+00  E= 1.906818D-01

 Vector   17  Occ=0.000000D+00  E= 2.448454D-01

 Vector   18  Occ=0.000000D+00  E= 3.176980D-01

 Vector   19  Occ=0.000000D+00  E= 3.176980D-01

 Vector   20  Occ=0.000000D+00  E= 3.566455D-01

 Vector   21  Occ=0.000000D+00  E= 4.089137D-01

 Vector   22  Occ=0.000000D+00  E= 4.196864D-01

 Vector   23  Occ=0.000000D+00  E= 4.196864D-01

 Vector   24  Occ=0.000000D+00  E= 4.230130D-01

 Vector   25  Occ=0.000000D+00  E= 4.230130D-01

 Vector   26  Occ=0.000000D+00  E= 4.258667D-01

 Vector   27  Occ=0.000000D+00  E= 4.258667D-01

 Vector   28  Occ=0.000000D+00  E= 5.539105D-01

     Multipole analysis of the density
     ---------------------------------

     L   x y z        total         alpha         beta         nuclear
     -   - - -        -----         -----         ----         -------
     0   0 0 0     -0.000000     -7.000000     -7.000000     14.000000

     1   1 0 0      0.000000      0.000000      0.000000      0.000000
     1   0 1 0      0.000000      0.000000      0.000000      0.000000
     1   0 0 1     -0.000000     -0.000000     -0.000000      0.000000

     2   2 0 0     -7.630341     -3.815170     -3.815170      0.000000
     2   1 1 0      0.000000      0.000000      0.000000      0.000000
     2   1 0 1      0.000000      0.000000      0.000000      0.000000
     2   0 2 0     -7.630341     -3.815170     -3.815170      0.000000
     2   0 1 1     -0.000000     -0.000000     -0.000000      0.000000

  Root   1 singlet a              0.379966838 a.u.               10.3394 eV
     Dipole Oscillator Strength                         0.00000
  Root   2 singlet a              0.379966840 a.u.               10.3394 eV
     Dipole Oscillator Strength                         0.00000
  Root   3 singlet a              0.516797752 a.u.               14.0628 eV
     Dipole Oscillator Strength                         0.12984
  Root   4 singlet a              0.516797752 a.u.               14.0628 eV
     Dipole Oscillator Strength                         0.12984
  Root   5 singlet a              0.527211435 a.u.               14.3462 eV
     Dipole Oscillator Strength                         0.69427
  Root   6 singlet a              0.539824560 a.u.               14.6894 eV
     Dipole Oscillator Strength                         0.00000
  Root   7 singlet a              0.539828749 a.u.               14.6895 eV
     Dipole Oscillator Strength                         0.00000
  Root   8 singlet a              0.539828749 a.u.               14.6895 eV
     Dipole Oscillator Strength                         0.00000
  Root   9 singlet a              0.543309530 a.u.               14.7842 eV
     Dipole Oscillator Strength                         0.00000
  Root  10 singlet a              0.547291726 a.u.               14.8926 eV
     Dipole Oscillator Strength                         0.00000
  Root   1 triplet a              0.175695119 a.u.                4.7809 eV
  Root   2 triplet a              0.300475599 a.u.                8.1764 eV
  Root   3 triplet a              0.300475599 a.u.                8.1764 eV
  Root   4 triplet a              0.421978901 a.u.               11.4826 eV
  Root   5 triplet a              0.421978901 a.u.               11.4826 eV
  Root   6 triplet a              0.490811251 a.u.               13.3557 eV
  Root   7 triplet a              0.504483039 a.u.               13.7277 eV
  Root   8 triplet a              0.504483039 a.u.               13.7277 eV
  Root   9 triplet a              0.524809544 a.u.               14.2808 eV
  Root  10 triplet a              0.533823950 a.u.               14.5261 eV
 Total times  cpu:       25.9s     wall:       26.7s
