============================== echo of input deck ==============================
start

permanent_dir /gpfs/scratch/bsundahl
scratch_dir /gpfs/scratch/bsundahl

title "Water"

memory stack 400 mb heap 800 mb global 4000 mb

echo

geometry units atomic noautosym
  O  0.0    0.0 0.0
  H  1.4375 0.0 1.15
  H -1.4375 0.0 1.15
end

basis spherical
 * library aug-cc-pvqz
end

driver
 maxiter 200
end

dft
 xc hfexch
 noio                         # turns off IO in charge fitting
 grid nodisk                  # turns off IO in grid
 direct                       # forces incore integrals
 maxiter 200
end

tddft
 nroots 10
end

task tddft energy
================================================================================

 Output coordinates in a.u. (scale by  1.000000000 to convert to a.u.)

  No.       Tag          Charge          X              Y              Z
 ---- ---------------- ---------- -------------- -------------- --------------
    1 O                    8.0000     0.00000000     0.00000000    -0.23000000
    2 H                    1.0000     1.43750000     0.00000000     0.92000000
    3 H                    1.0000    -1.43750000     0.00000000     0.92000000

         Total DFT energy =      -76.064121845933

                       DFT Final Molecular Orbital Analysis
                       ------------------------------------

 Vector    1  Occ=2.000000D+00  E=-2.056850D+01

 Vector    2  Occ=2.000000D+00  E=-1.345575D+00

 Vector    3  Occ=2.000000D+00  E=-7.051374D-01

 Vector    4  Occ=2.000000D+00  E=-5.853105D-01

 Vector    5  Occ=2.000000D+00  E=-5.096697D-01

 Vector    6  Occ=0.000000D+00  E= 2.665963D-02

 Vector    7  Occ=0.000000D+00  E= 4.311850D-02

 Vector    8  Occ=0.000000D+00  E= 1.138446D-01

 Vector    9  Occ=0.000000D+00  E= 1.343028D-01

 Vector   10  Occ=0.000000D+00  E= 1.510122D-01

 Vector   11  Occ=0.000000D+00  E= 1.588725D-01

 Vector   12  Occ=0.000000D+00  E= 1.840521D-01

 Vector   13  Occ=0.000000D+00  E= 1.966920D-01

 Vector   14  Occ=0.000000D+00  E= 2.095494D-01

 Vector   15  Occ=0.000000D+00  E= 2.356464D-01

 Vector   16  Occ=0.000000D+00  E= 2.565115D-01

 Vector   17  Occ=0.000000D+00  E= 2.914544D-01

 Vector   18  Occ=0.000000D+00  E= 3.548618D-01

 Vector   19  Occ=0.000000D+00  E= 3.870337D-01

 Vector   20  Occ=0.000000D+00  E= 4.688971D-01

 Vector   21  Occ=0.000000D+00  E= 5.087324D-01

     Multipole analysis of the density
     ---------------------------------

     L   x y z        total         alpha         beta         nuclear
     -   - - -        -----         -----         ----         -------
     0   0 0 0     -0.000000     -5.000000     -5.000000     10.000000

     1   1 0 0     -0.000000     -0.000000     -0.000000      0.000000
     1   0 1 0      0.000000      0.000000      0.000000      0.000000
     1   0 0 1      0.796499      0.398250      0.398250      0.000000

     2   2 0 0     -3.184868     -3.658840     -3.658840      4.132812
     2   1 1 0     -0.000000     -0.000000     -0.000000      0.000000
     2   1 0 1      0.000000      0.000000      0.000000      0.000000
     2   0 2 0     -5.641563     -2.820782     -2.820782      0.000000
     2   0 1 1      0.000000      0.000000      0.000000      0.000000

  Root   1 singlet a              0.313514937 a.u.                8.5312 eV
     Dipole Oscillator Strength                         0.04407
  Root   2 singlet a              0.374860748 a.u.               10.2005 eV
     Dipole Oscillator Strength                         0.00000
  Root   3 singlet a              0.399787586 a.u.               10.8788 eV
     Dipole Oscillator Strength                         0.09776
  Root   4 singlet a              0.424161056 a.u.               11.5420 eV
     Dipole Oscillator Strength                         0.01012
  Root   5 singlet a              0.444181019 a.u.               12.0868 eV
     Dipole Oscillator Strength                         0.00530
  Root   6 singlet a              0.457005492 a.u.               12.4358 eV
     Dipole Oscillator Strength                         0.00001
  Root   7 singlet a              0.457712637 a.u.               12.4550 eV
     Dipole Oscillator Strength                         0.00000
  Root   8 singlet a              0.460565921 a.u.               12.5326 eV
     Dipole Oscillator Strength                         0.02984
  Root   9 singlet a              0.497523867 a.u.               13.5383 eV
     Dipole Oscillator Strength                         0.00000
  Root  10 singlet a              0.502938987 a.u.               13.6857 eV
     Dipole Oscillator Strength                         0.00989
  Root   1 triplet a              0.284632543 a.u.                7.7452 eV
  Root   2 triplet a              0.356622502 a.u.                9.7042 eV
  Root   3 triplet a              0.357487155 a.u.                9.7277 eV
  Root   4 triplet a              0.397528321 a.u.               10.8173 eV
  Root   5 triplet a              0.414541190 a.u.               11.2802 eV
  Root   6 triplet a              0.415827792 a.u.               11.3153 eV
  Root   7 triplet a              0.446785040 a.u.               12.1576 eV
  Root   8 triplet a              0.450539836 a.u.               12.2598 eV
  Root   9 triplet a              0.470139006 a.u.               12.7931 eV
  Root  10 triplet a              0.476099641 a.u.               12.9553 eV
 Total times  cpu:       39.3s     wall:       43.8s
